phonopy:
  version: "2.20.0"
  frequency_unit_conversion_factor: 15.633302
  symmetry_tolerance: 1.00000e-05

space_group:
  type: "P6_3/mmc"
  number: 194
  Hall_symbol: "-P 6c 2c"

primitive_matrix:
- [  1.000000000000000,  0.000000000000000,  0.000000000000000 ]
- [  0.000000000000000,  1.000000000000000,  0.000000000000000 ]
- [  0.000000000000000,  0.000000000000000,  1.000000000000000 ]

supercell_matrix:
- [   4,   0,   0 ]
- [   0,   4,   0 ]
- [   0,   0,   2 ]

primitive_cell:
  lattice:
  - [     2.459319239450500,     0.000000000000000,     0.000000000000000 ] # a
  - [    -1.229659619825200,     2.129832937290600,     0.000000000000000 ] # b
  - [     0.000000000000000,     0.000000000000000,     7.187986655781800 ] # c
  points:
  - symbol: C  # 1
    coordinates: [  0.333333333415221,  0.666666666776253,  0.249999999999993 ]
    mass: 12.010700
  - symbol: C  # 2
    coordinates: [  0.666666666689557,  0.333333333270737,  0.749999999999993 ]
    mass: 12.010700
  - symbol: C  # 3
    coordinates: [  0.000000000000000,  0.000000000000000,  0.249999999999993 ]
    mass: 12.010700
  - symbol: C  # 4
    coordinates: [  0.000000000000000,  0.000000000000000,  0.749999999999993 ]
    mass: 12.010700
  reciprocal_lattice: # without 2pi
  - [     0.406616588834329,     0.234760197049399,     0.000000000000000 ] # a*
  - [     0.000000000000000,     0.469520394060634,     0.000000000000000 ] # b*
  - [     0.000000000000000,     0.000000000000000,     0.139121015089202 ] # c*

unit_cell:
  lattice:
  - [     2.459319239450500,     0.000000000000000,     0.000000000000000 ] # a
  - [    -1.229659619825200,     2.129832937290600,     0.000000000000000 ] # b
  - [     0.000000000000000,     0.000000000000000,     7.187986655781800 ] # c
  points:
  - symbol: C  # 1
    coordinates: [  0.333333333415221,  0.666666666776253,  0.249999999999993 ]
    mass: 12.010700
    reduced_to: 1
  - symbol: C  # 2
    coordinates: [  0.666666666689557,  0.333333333270737,  0.749999999999993 ]
    mass: 12.010700
    reduced_to: 2
  - symbol: C  # 3
    coordinates: [  0.000000000000000,  0.000000000000000,  0.249999999999993 ]
    mass: 12.010700
    reduced_to: 3
  - symbol: C  # 4
    coordinates: [  0.000000000000000,  0.000000000000000,  0.749999999999993 ]
    mass: 12.010700
    reduced_to: 4

supercell:
  lattice:
  - [     9.837276957802001,     0.000000000000000,     0.000000000000000 ] # a
  - [    -4.918638479300800,     8.519331749162401,     0.000000000000000 ] # b
  - [     0.000000000000000,     0.000000000000000,    14.375973311563600 ] # c
  points:
  - symbol: C  # 1
    coordinates: [  0.083333333353805,  0.166666666694063,  0.124999999999997 ]
    mass: 12.010700
    reduced_to: 1
  - symbol: C  # 2
    coordinates: [  0.333333333353805,  0.166666666694063,  0.124999999999997 ]
    mass: 12.010700
    reduced_to: 1
  - symbol: C  # 3
    coordinates: [  0.583333333353805,  0.166666666694063,  0.124999999999997 ]
    mass: 12.010700
    reduced_to: 1
  - symbol: C  # 4
    coordinates: [  0.833333333353805,  0.166666666694063,  0.124999999999997 ]
    mass: 12.010700
    reduced_to: 1
  - symbol: C  # 5
    coordinates: [  0.083333333353805,  0.416666666694063,  0.124999999999997 ]
    mass: 12.010700
    reduced_to: 1
  - symbol: C  # 6
    coordinates: [  0.333333333353805,  0.416666666694063,  0.124999999999997 ]
    mass: 12.010700
    reduced_to: 1
  - symbol: C  # 7
    coordinates: [  0.583333333353805,  0.416666666694063,  0.124999999999997 ]
    mass: 12.010700
    reduced_to: 1
  - symbol: C  # 8
    coordinates: [  0.833333333353805,  0.416666666694063,  0.124999999999997 ]
    mass: 12.010700
    reduced_to: 1
  - symbol: C  # 9
    coordinates: [  0.083333333353805,  0.666666666694063,  0.124999999999997 ]
    mass: 12.010700
    reduced_to: 1
  - symbol: C  # 10
    coordinates: [  0.333333333353805,  0.666666666694063,  0.124999999999997 ]
    mass: 12.010700
    reduced_to: 1
  - symbol: C  # 11
    coordinates: [  0.583333333353805,  0.666666666694063,  0.124999999999997 ]
    mass: 12.010700
    reduced_to: 1
  - symbol: C  # 12
    coordinates: [  0.833333333353805,  0.666666666694063,  0.124999999999997 ]
    mass: 12.010700
    reduced_to: 1
  - symbol: C  # 13
    coordinates: [  0.083333333353805,  0.916666666694063,  0.124999999999997 ]
    mass: 12.010700
    reduced_to: 1
  - symbol: C  # 14
    coordinates: [  0.333333333353805,  0.916666666694063,  0.124999999999997 ]
    mass: 12.010700
    reduced_to: 1
  - symbol: C  # 15
    coordinates: [  0.583333333353805,  0.916666666694063,  0.124999999999997 ]
    mass: 12.010700
    reduced_to: 1
  - symbol: C  # 16
    coordinates: [  0.833333333353805,  0.916666666694063,  0.124999999999997 ]
    mass: 12.010700
    reduced_to: 1
  - symbol: C  # 17
    coordinates: [  0.083333333353805,  0.166666666694063,  0.624999999999997 ]
    mass: 12.010700
    reduced_to: 1
  - symbol: C  # 18
    coordinates: [  0.333333333353805,  0.166666666694063,  0.624999999999997 ]
    mass: 12.010700
    reduced_to: 1
  - symbol: C  # 19
    coordinates: [  0.583333333353805,  0.166666666694063,  0.624999999999997 ]
    mass: 12.010700
    reduced_to: 1
  - symbol: C  # 20
    coordinates: [  0.833333333353805,  0.166666666694063,  0.624999999999997 ]
    mass: 12.010700
    reduced_to: 1
  - symbol: C  # 21
    coordinates: [  0.083333333353805,  0.416666666694063,  0.624999999999997 ]
    mass: 12.010700
    reduced_to: 1
  - symbol: C  # 22
    coordinates: [  0.333333333353805,  0.416666666694063,  0.624999999999997 ]
    mass: 12.010700
    reduced_to: 1
  - symbol: C  # 23
    coordinates: [  0.583333333353805,  0.416666666694063,  0.624999999999997 ]
    mass: 12.010700
    reduced_to: 1
  - symbol: C  # 24
    coordinates: [  0.833333333353805,  0.416666666694063,  0.624999999999997 ]
    mass: 12.010700
    reduced_to: 1
  - symbol: C  # 25
    coordinates: [  0.083333333353805,  0.666666666694063,  0.624999999999997 ]
    mass: 12.010700
    reduced_to: 1
  - symbol: C  # 26
    coordinates: [  0.333333333353805,  0.666666666694063,  0.624999999999997 ]
    mass: 12.010700
    reduced_to: 1
  - symbol: C  # 27
    coordinates: [  0.583333333353805,  0.666666666694063,  0.624999999999997 ]
    mass: 12.010700
    reduced_to: 1
  - symbol: C  # 28
    coordinates: [  0.833333333353805,  0.666666666694063,  0.624999999999997 ]
    mass: 12.010700
    reduced_to: 1
  - symbol: C  # 29
    coordinates: [  0.083333333353805,  0.916666666694063,  0.624999999999997 ]
    mass: 12.010700
    reduced_to: 1
  - symbol: C  # 30
    coordinates: [  0.333333333353805,  0.916666666694063,  0.624999999999997 ]
    mass: 12.010700
    reduced_to: 1
  - symbol: C  # 31
    coordinates: [  0.583333333353805,  0.916666666694063,  0.624999999999997 ]
    mass: 12.010700
    reduced_to: 1
  - symbol: C  # 32
    coordinates: [  0.833333333353805,  0.916666666694063,  0.624999999999997 ]
    mass: 12.010700
    reduced_to: 1
  - symbol: C  # 33
    coordinates: [  0.166666666672389,  0.083333333317684,  0.374999999999997 ]
    mass: 12.010700
    reduced_to: 33
  - symbol: C  # 34
    coordinates: [  0.416666666672389,  0.083333333317684,  0.374999999999997 ]
    mass: 12.010700
    reduced_to: 33
  - symbol: C  # 35
    coordinates: [  0.666666666672389,  0.083333333317684,  0.374999999999997 ]
    mass: 12.010700
    reduced_to: 33
  - symbol: C  # 36
    coordinates: [  0.916666666672389,  0.083333333317684,  0.374999999999997 ]
    mass: 12.010700
    reduced_to: 33
  - symbol: C  # 37
    coordinates: [  0.166666666672389,  0.333333333317684,  0.374999999999997 ]
    mass: 12.010700
    reduced_to: 33
  - symbol: C  # 38
    coordinates: [  0.416666666672389,  0.333333333317684,  0.374999999999997 ]
    mass: 12.010700
    reduced_to: 33
  - symbol: C  # 39
    coordinates: [  0.666666666672389,  0.333333333317684,  0.374999999999997 ]
    mass: 12.010700
    reduced_to: 33
  - symbol: C  # 40
    coordinates: [  0.916666666672389,  0.333333333317684,  0.374999999999997 ]
    mass: 12.010700
    reduced_to: 33
  - symbol: C  # 41
    coordinates: [  0.166666666672389,  0.583333333317684,  0.374999999999997 ]
    mass: 12.010700
    reduced_to: 33
  - symbol: C  # 42
    coordinates: [  0.416666666672389,  0.583333333317684,  0.374999999999997 ]
    mass: 12.010700
    reduced_to: 33
  - symbol: C  # 43
    coordinates: [  0.666666666672389,  0.583333333317684,  0.374999999999997 ]
    mass: 12.010700
    reduced_to: 33
  - symbol: C  # 44
    coordinates: [  0.916666666672389,  0.583333333317684,  0.374999999999997 ]
    mass: 12.010700
    reduced_to: 33
  - symbol: C  # 45
    coordinates: [  0.166666666672389,  0.833333333317684,  0.374999999999997 ]
    mass: 12.010700
    reduced_to: 33
  - symbol: C  # 46
    coordinates: [  0.416666666672389,  0.833333333317684,  0.374999999999997 ]
    mass: 12.010700
    reduced_to: 33
  - symbol: C  # 47
    coordinates: [  0.666666666672389,  0.833333333317684,  0.374999999999997 ]
    mass: 12.010700
    reduced_to: 33
  - symbol: C  # 48
    coordinates: [  0.916666666672389,  0.833333333317684,  0.374999999999997 ]
    mass: 12.010700
    reduced_to: 33
  - symbol: C  # 49
    coordinates: [  0.166666666672389,  0.083333333317684,  0.874999999999996 ]
    mass: 12.010700
    reduced_to: 33
  - symbol: C  # 50
    coordinates: [  0.416666666672389,  0.083333333317684,  0.874999999999996 ]
    mass: 12.010700
    reduced_to: 33
  - symbol: C  # 51
    coordinates: [  0.666666666672389,  0.083333333317684,  0.874999999999996 ]
    mass: 12.010700
    reduced_to: 33
  - symbol: C  # 52
    coordinates: [  0.916666666672389,  0.083333333317684,  0.874999999999996 ]
    mass: 12.010700
    reduced_to: 33
  - symbol: C  # 53
    coordinates: [  0.166666666672389,  0.333333333317684,  0.874999999999996 ]
    mass: 12.010700
    reduced_to: 33
  - symbol: C  # 54
    coordinates: [  0.416666666672389,  0.333333333317684,  0.874999999999996 ]
    mass: 12.010700
    reduced_to: 33
  - symbol: C  # 55
    coordinates: [  0.666666666672389,  0.333333333317684,  0.874999999999996 ]
    mass: 12.010700
    reduced_to: 33
  - symbol: C  # 56
    coordinates: [  0.916666666672389,  0.333333333317684,  0.874999999999996 ]
    mass: 12.010700
    reduced_to: 33
  - symbol: C  # 57
    coordinates: [  0.166666666672389,  0.583333333317684,  0.874999999999996 ]
    mass: 12.010700
    reduced_to: 33
  - symbol: C  # 58
    coordinates: [  0.416666666672389,  0.583333333317684,  0.874999999999996 ]
    mass: 12.010700
    reduced_to: 33
  - symbol: C  # 59
    coordinates: [  0.666666666672389,  0.583333333317684,  0.874999999999996 ]
    mass: 12.010700
    reduced_to: 33
  - symbol: C  # 60
    coordinates: [  0.916666666672389,  0.583333333317684,  0.874999999999996 ]
    mass: 12.010700
    reduced_to: 33
  - symbol: C  # 61
    coordinates: [  0.166666666672389,  0.833333333317684,  0.874999999999996 ]
    mass: 12.010700
    reduced_to: 33
  - symbol: C  # 62
    coordinates: [  0.416666666672389,  0.833333333317684,  0.874999999999996 ]
    mass: 12.010700
    reduced_to: 33
  - symbol: C  # 63
    coordinates: [  0.666666666672389,  0.833333333317684,  0.874999999999996 ]
    mass: 12.010700
    reduced_to: 33
  - symbol: C  # 64
    coordinates: [  0.916666666672389,  0.833333333317684,  0.874999999999996 ]
    mass: 12.010700
    reduced_to: 33
  - symbol: C  # 65
    coordinates: [  0.000000000000000,  0.000000000000000,  0.124999999999997 ]
    mass: 12.010700
    reduced_to: 65
  - symbol: C  # 66
    coordinates: [  0.250000000000000,  0.000000000000000,  0.124999999999997 ]
    mass: 12.010700
    reduced_to: 65
  - symbol: C  # 67
    coordinates: [  0.500000000000000,  0.000000000000000,  0.124999999999997 ]
    mass: 12.010700
    reduced_to: 65
  - symbol: C  # 68
    coordinates: [  0.750000000000000,  0.000000000000000,  0.124999999999997 ]
    mass: 12.010700
    reduced_to: 65
  - symbol: C  # 69
    coordinates: [  0.000000000000000,  0.250000000000000,  0.124999999999997 ]
    mass: 12.010700
    reduced_to: 65
  - symbol: C  # 70
    coordinates: [  0.250000000000000,  0.250000000000000,  0.124999999999997 ]
    mass: 12.010700
    reduced_to: 65
  - symbol: C  # 71
    coordinates: [  0.500000000000000,  0.250000000000000,  0.124999999999997 ]
    mass: 12.010700
    reduced_to: 65
  - symbol: C  # 72
    coordinates: [  0.750000000000000,  0.250000000000000,  0.124999999999997 ]
    mass: 12.010700
    reduced_to: 65
  - symbol: C  # 73
    coordinates: [  0.000000000000000,  0.500000000000000,  0.124999999999997 ]
    mass: 12.010700
    reduced_to: 65
  - symbol: C  # 74
    coordinates: [  0.250000000000000,  0.500000000000000,  0.124999999999997 ]
    mass: 12.010700
    reduced_to: 65
  - symbol: C  # 75
    coordinates: [  0.500000000000000,  0.500000000000000,  0.124999999999997 ]
    mass: 12.010700
    reduced_to: 65
  - symbol: C  # 76
    coordinates: [  0.750000000000000,  0.500000000000000,  0.124999999999997 ]
    mass: 12.010700
    reduced_to: 65
  - symbol: C  # 77
    coordinates: [  0.000000000000000,  0.750000000000000,  0.124999999999997 ]
    mass: 12.010700
    reduced_to: 65
  - symbol: C  # 78
    coordinates: [  0.250000000000000,  0.750000000000000,  0.124999999999997 ]
    mass: 12.010700
    reduced_to: 65
  - symbol: C  # 79
    coordinates: [  0.500000000000000,  0.750000000000000,  0.124999999999997 ]
    mass: 12.010700
    reduced_to: 65
  - symbol: C  # 80
    coordinates: [  0.750000000000000,  0.750000000000000,  0.124999999999997 ]
    mass: 12.010700
    reduced_to: 65
  - symbol: C  # 81
    coordinates: [  0.000000000000000,  0.000000000000000,  0.624999999999997 ]
    mass: 12.010700
    reduced_to: 65
  - symbol: C  # 82
    coordinates: [  0.250000000000000,  0.000000000000000,  0.624999999999997 ]
    mass: 12.010700
    reduced_to: 65
  - symbol: C  # 83
    coordinates: [  0.500000000000000,  0.000000000000000,  0.624999999999997 ]
    mass: 12.010700
    reduced_to: 65
  - symbol: C  # 84
    coordinates: [  0.750000000000000,  0.000000000000000,  0.624999999999997 ]
    mass: 12.010700
    reduced_to: 65
  - symbol: C  # 85
    coordinates: [  0.000000000000000,  0.250000000000000,  0.624999999999997 ]
    mass: 12.010700
    reduced_to: 65
  - symbol: C  # 86
    coordinates: [  0.250000000000000,  0.250000000000000,  0.624999999999997 ]
    mass: 12.010700
    reduced_to: 65
  - symbol: C  # 87
    coordinates: [  0.500000000000000,  0.250000000000000,  0.624999999999997 ]
    mass: 12.010700
    reduced_to: 65
  - symbol: C  # 88
    coordinates: [  0.750000000000000,  0.250000000000000,  0.624999999999997 ]
    mass: 12.010700
    reduced_to: 65
  - symbol: C  # 89
    coordinates: [  0.000000000000000,  0.500000000000000,  0.624999999999997 ]
    mass: 12.010700
    reduced_to: 65
  - symbol: C  # 90
    coordinates: [  0.250000000000000,  0.500000000000000,  0.624999999999997 ]
    mass: 12.010700
    reduced_to: 65
  - symbol: C  # 91
    coordinates: [  0.500000000000000,  0.500000000000000,  0.624999999999997 ]
    mass: 12.010700
    reduced_to: 65
  - symbol: C  # 92
    coordinates: [  0.750000000000000,  0.500000000000000,  0.624999999999997 ]
    mass: 12.010700
    reduced_to: 65
  - symbol: C  # 93
    coordinates: [  0.000000000000000,  0.750000000000000,  0.624999999999997 ]
    mass: 12.010700
    reduced_to: 65
  - symbol: C  # 94
    coordinates: [  0.250000000000000,  0.750000000000000,  0.624999999999997 ]
    mass: 12.010700
    reduced_to: 65
  - symbol: C  # 95
    coordinates: [  0.500000000000000,  0.750000000000000,  0.624999999999997 ]
    mass: 12.010700
    reduced_to: 65
  - symbol: C  # 96
    coordinates: [  0.750000000000000,  0.750000000000000,  0.624999999999997 ]
    mass: 12.010700
    reduced_to: 65
  - symbol: C  # 97
    coordinates: [  0.000000000000000,  0.000000000000000,  0.374999999999997 ]
    mass: 12.010700
    reduced_to: 97
  - symbol: C  # 98
    coordinates: [  0.250000000000000,  0.000000000000000,  0.374999999999997 ]
    mass: 12.010700
    reduced_to: 97
  - symbol: C  # 99
    coordinates: [  0.500000000000000,  0.000000000000000,  0.374999999999997 ]
    mass: 12.010700
    reduced_to: 97
  - symbol: C  # 100
    coordinates: [  0.750000000000000,  0.000000000000000,  0.374999999999997 ]
    mass: 12.010700
    reduced_to: 97
  - symbol: C  # 101
    coordinates: [  0.000000000000000,  0.250000000000000,  0.374999999999997 ]
    mass: 12.010700
    reduced_to: 97
  - symbol: C  # 102
    coordinates: [  0.250000000000000,  0.250000000000000,  0.374999999999997 ]
    mass: 12.010700
    reduced_to: 97
  - symbol: C  # 103
    coordinates: [  0.500000000000000,  0.250000000000000,  0.374999999999997 ]
    mass: 12.010700
    reduced_to: 97
  - symbol: C  # 104
    coordinates: [  0.750000000000000,  0.250000000000000,  0.374999999999997 ]
    mass: 12.010700
    reduced_to: 97
  - symbol: C  # 105
    coordinates: [  0.000000000000000,  0.500000000000000,  0.374999999999997 ]
    mass: 12.010700
    reduced_to: 97
  - symbol: C  # 106
    coordinates: [  0.250000000000000,  0.500000000000000,  0.374999999999997 ]
    mass: 12.010700
    reduced_to: 97
  - symbol: C  # 107
    coordinates: [  0.500000000000000,  0.500000000000000,  0.374999999999997 ]
    mass: 12.010700
    reduced_to: 97
  - symbol: C  # 108
    coordinates: [  0.750000000000000,  0.500000000000000,  0.374999999999997 ]
    mass: 12.010700
    reduced_to: 97
  - symbol: C  # 109
    coordinates: [  0.000000000000000,  0.750000000000000,  0.374999999999997 ]
    mass: 12.010700
    reduced_to: 97
  - symbol: C  # 110
    coordinates: [  0.250000000000000,  0.750000000000000,  0.374999999999997 ]
    mass: 12.010700
    reduced_to: 97
  - symbol: C  # 111
    coordinates: [  0.500000000000000,  0.750000000000000,  0.374999999999997 ]
    mass: 12.010700
    reduced_to: 97
  - symbol: C  # 112
    coordinates: [  0.750000000000000,  0.750000000000000,  0.374999999999997 ]
    mass: 12.010700
    reduced_to: 97
  - symbol: C  # 113
    coordinates: [  0.000000000000000,  0.000000000000000,  0.874999999999996 ]
    mass: 12.010700
    reduced_to: 97
  - symbol: C  # 114
    coordinates: [  0.250000000000000,  0.000000000000000,  0.874999999999996 ]
    mass: 12.010700
    reduced_to: 97
  - symbol: C  # 115
    coordinates: [  0.500000000000000,  0.000000000000000,  0.874999999999996 ]
    mass: 12.010700
    reduced_to: 97
  - symbol: C  # 116
    coordinates: [  0.750000000000000,  0.000000000000000,  0.874999999999996 ]
    mass: 12.010700
    reduced_to: 97
  - symbol: C  # 117
    coordinates: [  0.000000000000000,  0.250000000000000,  0.874999999999996 ]
    mass: 12.010700
    reduced_to: 97
  - symbol: C  # 118
    coordinates: [  0.250000000000000,  0.250000000000000,  0.874999999999996 ]
    mass: 12.010700
    reduced_to: 97
  - symbol: C  # 119
    coordinates: [  0.500000000000000,  0.250000000000000,  0.874999999999996 ]
    mass: 12.010700
    reduced_to: 97
  - symbol: C  # 120
    coordinates: [  0.750000000000000,  0.250000000000000,  0.874999999999996 ]
    mass: 12.010700
    reduced_to: 97
  - symbol: C  # 121
    coordinates: [  0.000000000000000,  0.500000000000000,  0.874999999999996 ]
    mass: 12.010700
    reduced_to: 97
  - symbol: C  # 122
    coordinates: [  0.250000000000000,  0.500000000000000,  0.874999999999996 ]
    mass: 12.010700
    reduced_to: 97
  - symbol: C  # 123
    coordinates: [  0.500000000000000,  0.500000000000000,  0.874999999999996 ]
    mass: 12.010700
    reduced_to: 97
  - symbol: C  # 124
    coordinates: [  0.750000000000000,  0.500000000000000,  0.874999999999996 ]
    mass: 12.010700
    reduced_to: 97
  - symbol: C  # 125
    coordinates: [  0.000000000000000,  0.750000000000000,  0.874999999999996 ]
    mass: 12.010700
    reduced_to: 97
  - symbol: C  # 126
    coordinates: [  0.250000000000000,  0.750000000000000,  0.874999999999996 ]
    mass: 12.010700
    reduced_to: 97
  - symbol: C  # 127
    coordinates: [  0.500000000000000,  0.750000000000000,  0.874999999999996 ]
    mass: 12.010700
    reduced_to: 97
  - symbol: C  # 128
    coordinates: [  0.750000000000000,  0.750000000000000,  0.874999999999996 ]
    mass: 12.010700
    reduced_to: 97

displacements:
- atom:    1
  displacement:
    [   0.0056472632803302,  0.0000000000000000,  0.0082527824061121 ]
  forces:
  - [  -0.3578944691095072, -0.0027091713585224, -0.1192598469333339 ]
  - [   0.0264119139200505, -0.0018288256499165, -0.0040080926552155 ]
  - [   0.0010837199654714, -0.0000059135371781, -0.0001681501441087 ]
  - [   0.0260504168212479,  0.0018365389592793, -0.0037754078227715 ]
  - [  -0.0047295441909480, -0.0196416851820215, -0.0038702815279337 ]
  - [  -0.0046711801501030,  0.0197409297624893, -0.0039121905088049 ]
  - [   0.0027575080971959,  0.0011737085747039,  0.0004831102764225 ]
  - [   0.0027335968381712, -0.0011649668240927,  0.0004856813795434 ]
  - [  -0.0014377608652232, -0.0014521590427004, -0.0001630079378669 ]
  - [   0.0007201659841721, -0.0000030853237451,  0.0004846529382950 ]
  - [  -0.0014328757692935,  0.0014562728076939, -0.0001727781297264 ]
  - [   0.0007206802047963,  0.0000156837290377,  0.0004843958279829 ]
  - [  -0.0047624543108959, -0.0160575674314471, -0.0039864953889997 ]
  - [   0.0027269119700568, -0.0011544253012969,  0.0004882524826643 ]
  - [   0.0027639358549982,  0.0011839929871876,  0.0004807962836136 ]
  - [  -0.0046400698023397,  0.0159930327431118, -0.0037952053168026 ]
  - [   0.0000023139928088, -0.0000000000000000,  0.0000354812230688 ]
  - [   0.0000017997721846, -0.0000005142206242,  0.0000030853237451 ]
  - [   0.0000023139928088,  0.0000000000000000,  0.0000056564268660 ]
  - [   0.0000020568824967,  0.0000007713309363,  0.0000028282134330 ]
  - [   0.0000010284412484, -0.0000012855515605,  0.0000028282134330 ]
  - [   0.0000012855515605,  0.0000012855515605,  0.0000028282134330 ]
  - [   0.0000020568824967,  0.0000005142206242,  0.0000046279856177 ]
  - [   0.0000025711031209, -0.0000005142206242,  0.0000048850959298 ]
  - [   0.0000012855515605,  0.0000000000000000,  0.0000056564268660 ]
  - [   0.0000017997721846,  0.0000000000000000,  0.0000048850959298 ]
  - [   0.0000012855515605,  0.0000007713309363,  0.0000053993165539 ]
  - [   0.0000012855515605,  0.0000002571103121,  0.0000048850959298 ]
  - [   0.0000010284412484,  0.0000005142206242,  0.0000030853237451 ]
  - [   0.0000020568824967, -0.0000002571103121,  0.0000048850959298 ]
  - [   0.0000025711031209,  0.0000007713309363,  0.0000048850959298 ]
  - [   0.0000012855515605, -0.0000002571103121,  0.0000028282134330 ]
  - [  -0.0000964163670348,  0.0000226257074642, -0.0000156837290377 ]
  - [   0.0000030853237451,  0.0000390807674381,  0.0000290534652665 ]
  - [  -0.0000347098921325, -0.0000035995443693,  0.0000023139928088 ]
  - [   0.0000532218346032,  0.0000627349161507,  0.0000851035133027 ]
  - [  -0.0000565642686604, -0.0000861319545511,  0.0000347098921325 ]
  - [  -0.0000763617626916, -0.0000575927099088, -0.0000424232014953 ]
  - [  -0.0000107986331079,  0.0000007713309363,  0.0000035995443693 ]
  - [   0.0000537360552274, -0.0000167121702860,  0.0000447371943042 ]
  - [  -0.0000190261630949, -0.0000017997721846, -0.0000012855515605 ]
  - [   0.0000303390168270,  0.0000164550599739,  0.0000323958993237 ]
  - [  -0.0000609351439660,  0.0000290534652665,  0.0000043708753056 ]
  - [  -0.0000629920264627, -0.0000298247962028,  0.0000030853237451 ]
  - [  -0.0000372809952535, -0.0000128555156046,  0.0000120841846684 ]
  - [  -0.0000601638130297, -0.0000002571103121,  0.0000233970384004 ]
  - [  -0.0000254539208972, -0.0000370238849414,  0.0000190261630949 ]
  - [   0.0000241683693367,  0.0000750762111311,  0.0000012855515605 ]
  - [   0.0000542502758516, -0.0000640204677111,  0.0000853606236148 ]
  - [  -0.0000349670024446,  0.0000046279856177,  0.0000025711031209 ]
  - [   0.0000023139928088, -0.0000383094365018,  0.0000287963549544 ]
  - [  -0.0000959021464106, -0.0000226257074642, -0.0000177406115344 ]
  - [  -0.0000565642686604,  0.0000866461751753,  0.0000339385611963 ]
  - [   0.0000537360552274,  0.0000172263909102,  0.0000447371943042 ]
  - [  -0.0000102844124837, -0.0000012855515605,  0.0000035995443693 ]
  - [  -0.0000732764389465,  0.0000565642686604, -0.0000421660911832 ]
  - [   0.0000293105755786, -0.0000167121702860,  0.0000326530096358 ]
  - [  -0.0000185119424707,  0.0000007713309363, -0.0000007713309363 ]
  - [  -0.0000622206955265,  0.0000300819065149,  0.0000030853237451 ]
  - [  -0.0000609351439660, -0.0000290534652665,  0.0000046279856177 ]
  - [  -0.0000262252518335,  0.0000377952158776,  0.0000195403837191 ]
  - [  -0.0000601638130297, -0.0000000000000000,  0.0000236541487125 ]
  - [  -0.0000370238849414,  0.0000120841846684,  0.0000123412949805 ]
  - [   0.0000241683693367, -0.0000735335492586,  0.0000010284412484 ]
  - [   0.0593981385203152,  0.0006044663437303,  0.0504039055826830 ]
  - [  -0.0010358974474221,  0.0070761900094195,  0.0032352190570644 ]
  - [  -0.0018128848105667,  0.0000141410671651, -0.0000881888370478 ]
  - [  -0.0011341135866416, -0.0070512503091465,  0.0032419039251788 ]
  - [   0.1245349792065430, -0.0374180350498093,  0.0510024583892352 ]
  - [   0.1274467534909945,  0.0394911154962139,  0.0497742424283676 ]
  - [  -0.0008482069195943, -0.0039846956168150, -0.0039049914200663 ]
  - [  -0.0008507780227153,  0.0039607843577904, -0.0039103907366202 ]
  - [  -0.0036741063598069,  0.0023101361541543, -0.0039168184944225 ]
  - [   0.0111501029045308, -0.0000120841846684,  0.0032388186014337 ]
  - [  -0.0037041882663217, -0.0023157925810203, -0.0038983065519518 ]
  - [  -0.0034154533858415, -0.0000161979496618,  0.0015238928197743 ]
  - [   0.0031745410234105, -0.0016485913211394, -0.0039145045016137 ]
  - [   0.0004448008399206,  0.0012976357451326, -0.0000905028298567 ]
  - [   0.0004558565833406, -0.0013158905772912, -0.0000858748442390 ]
  - [   0.0031737696924742,  0.0016100247743254, -0.0039008776550728 ]
  - [   0.0000051422062419,  0.0000000000000000,  0.0000051422062419 ]
  - [   0.0000046279856177, -0.0000012855515605,  0.0000048850959298 ]
  - [   0.0000025711031209,  0.0000002571103121,  0.0000043708753056 ]
  - [   0.0000048850959298,  0.0000015426618726,  0.0000046279856177 ]
  - [   0.0000015426618726,  0.0000020568824967,  0.0000051422062419 ]
  - [   0.0000015426618726, -0.0000017997721846,  0.0000051422062419 ]
  - [   0.0000066848681144,  0.0000000000000000,  0.0000051422062419 ]
  - [   0.0000069419784265,  0.0000002571103121,  0.0000048850959298 ]
  - [   0.0000046279856177, -0.0000005142206242,  0.0000048850959298 ]
  - [   0.0000023139928088,  0.0000002571103121,  0.0000046279856177 ]
  - [   0.0000048850959298,  0.0000010284412484,  0.0000048850959298 ]
  - [   0.0000061706474902,  0.0000002571103121,  0.0000095130815474 ]
  - [   0.0000051422062419, -0.0000007713309363,  0.0000048850959298 ]
  - [   0.0000035995443693,  0.0000010284412484,  0.0000046279856177 ]
  - [   0.0000038566546814, -0.0000005142206242,  0.0000041137649935 ]
  - [   0.0000053993165539,  0.0000012855515605,  0.0000048850959298 ]
  - [  -0.0000637633573990, -0.0000293105755786,  0.0001486097603897 ]
  - [   0.0000856177339269, -0.0000480796283614, -0.0000323958993237 ]
  - [   0.0000385665468139, -0.0000143981774772,  0.0000059135371781 ]
  - [   0.0000293105755786,  0.0000159408393498, -0.0000503936211702 ]
  - [  -0.0000259681415214, -0.0000215972662158,  0.0000874175061116 ]
  - [   0.0000246825899609,  0.0000514220624186,  0.0002100591249799 ]
  - [   0.0000753333214432, -0.0000568213789725,  0.0000259681415214 ]
  - [   0.0000529647242911,  0.0000308532374511, -0.0000048850959298 ]
  - [   0.0000298247962028, -0.0000750762111311, -0.0000012855515605 ]
  - [   0.0000020568824967,  0.0000329101199479, -0.0000411376499349 ]
  - [   0.0000179977218465,  0.0001079863310790,  0.0000226257074642 ]
  - [   0.0000938452639139,  0.0000007713309363,  0.0000192832734070 ]
  - [   0.0000192832734070,  0.0000305961271390,  0.0000141410671651 ]
  - [   0.0000683913430167,  0.0000177406115344,  0.0000046279856177 ]
  - [   0.0000429374221195, -0.0000020568824967,  0.0000071990887386 ]
  - [  -0.0000133697362288, -0.0000352241127567,  0.0000071990887386 ]
  - [  -0.0000640204677111,  0.0000277679137060,  0.0001473242088292 ]
  - [   0.0000280250240181, -0.0000149123981014, -0.0000509078417944 ]
  - [   0.0000385665468139,  0.0000156837290377,  0.0000061706474902 ]
  - [   0.0000853606236148,  0.0000485938489855, -0.0000308532374511 ]
  - [   0.0000221114868400, -0.0000496222902339,  0.0002051740290501 ]
  - [  -0.0000254539208972,  0.0000223685971521,  0.0000894743886083 ]
  - [   0.0000527076139790, -0.0000308532374511, -0.0000046279856177 ]
  - [   0.0000737906595706,  0.0000570784892846,  0.0000257110312093 ]
  - [   0.0000177406115344, -0.0001067007795185,  0.0000223685971521 ]
  - [   0.0000017997721846, -0.0000331672302600, -0.0000408805396228 ]
  - [   0.0000295676858907,  0.0000753333214432, -0.0000012855515605 ]
  - [   0.0000935881536018,  0.0000005142206242,  0.0000190261630949 ]
  - [  -0.0000143981774772,  0.0000362525540051,  0.0000074561990507 ]
  - [   0.0000424232014953,  0.0000028282134330,  0.0000074561990507 ]
  - [   0.0000683913430167, -0.0000167121702860,  0.0000048850959298 ]
  - [   0.0000195403837191, -0.0000300819065149,  0.0000138839568530 ]
- atom:   65
  displacement:
    [   0.0056472632803302,  0.0000000000000000,  0.0082527824061121 ]
  forces:
  - [   0.0593978814100031, -0.0006062661159149,  0.0504049340239314 ]
  - [  -0.0010366687783584, -0.0070759328991074,  0.0032365046086248 ]
  - [  -0.0018128848105667, -0.0000128555156046, -0.0000869032854874 ]
  - [  -0.0011333422557053,  0.0070515074194586,  0.0032434465870513 ]